<?xml version="1.0" encoding="UTF-8"?>

<!-- generated on 2025-08-20 17:10:46 by Eclipse SUMO sumo Version 1.24.0
<sumoConfiguration xmlns:xsi="http://www.w3.org/2001/XMLSchema-instance" xsi:noNamespaceSchemaLocation="http://sumo.dlr.de/xsd/sumoConfiguration.xsd">

    <input>
        <net-file value="osm.net.xml.gz"/>
        <route-files value="osm.passenger.trips.xml"/>
        <additional-files value="osm.poly.xml.gz,output.add.xml"/>
    </input>

    <output>
        <tripinfo-output value="tripinfos.xml"/>
        <statistic-output value="stats.xml"/>
    </output>

    <processing>
        <ignore-route-errors value="true"/>
        <tls.actuated.jam-threshold value="30"/>
    </processing>

    <routing>
        <device.rerouting.adaptation-steps value="18"/>
        <device.rerouting.adaptation-interval value="10"/>
    </routing>

    <report>
        <verbose value="true"/>
        <duration-log.statistics value="true"/>
        <no-step-log value="true"/>
    </report>

    <traci_server>
        <remote-port value="42285"/>
    </traci_server>

    <gui_only>
        <gui-settings-file value="osm.view.xml"/>
    </gui_only>

</sumoConfiguration>
-->

<meandata xmlns:xsi="http://www.w3.org/2001/XMLSchema-instance" xsi:noNamespaceSchemaLocation="http://sumo.dlr.de/xsd/meandata_file.xsd">
    <interval begin="0.00" end="3600.00" id="wizard_example">
        <edge id="-101344002#1" sampledSeconds="37.50" traveltime="11.84" overlapTraveltime="11.58" density="1.24" laneDensity="1.24" occupancy="0.57" waitingTime="25.00" timeLoss="33.10" speed="1.16" speedRelative="0.08" departed="2" arrived="1" entered="2" left="3" laneChangedFrom="0" laneChangedTo="0"/>
        <edge id="-1028906331#3" sampledSeconds="7266.00" traveltime="15.82" overlapTraveltime="16.86" density="10.12" laneDensity="5.06" occupancy="2.44" waitingTime="1214.00" timeLoss="4081.64" speed="12.12" speedRelative="0.44" departed="2" arrived="2" entered="429" left="429" laneChangedFrom="59" laneChangedTo="59"/>
        <edge id="-1028906331#9" sampledSeconds="3134.22" traveltime="7.15" overlapTraveltime="7.45" density="5.05" laneDensity="2.53" occupancy="1.22" waitingTime="29.00" timeLoss="419.05" speed="23.82" speedRelative="0.86" departed="1" arrived="2" entered="420" left="419" laneChangedFrom="22" laneChangedTo="22"/>
        <edge id="-1067081763" sampledSeconds="18.59" traveltime="5.84" overlapTraveltime="6.20" density="0.08" laneDensity="0.08" occupancy="0.03" waitingTime="0.00" timeLoss="3.45" speed="11.75" speedRelative="0.85" departed="0" arrived="3" entered="3" left="0" laneChangedFrom="0" laneChangedTo="0"/>
        <edge id="-1067133396" sampledSeconds="4.19" traveltime="3.79" overlapTraveltime="4.19" density="0.03" laneDensity="0.03" occupancy="0.01" waitingTime="0.00" timeLoss="1.30" speed="9.20" speedRelative="0.66" departed="0" arrived="1" entered="1" left="0" laneChangedFrom="0" laneChangedTo="0"/>
        <edge id="-1093485832" sampledSeconds="9.90" traveltime="4.79" overlapTraveltime="5.47" density="0.06" laneDensity="0.06" occupancy="0.03" waitingTime="0.00" timeLoss="3.04" speed="9.85" speedRelative="0.71" departed="2" arrived="0" entered="0" left="2" laneChangedFrom="0" laneChangedTo="0"/>
        <edge id="-1101709281" sampledSeconds="54.40" traveltime="17.72" overlapTraveltime="18.57" density="0.07" laneDensity="0.07" occupancy="0.03" waitingTime="0.00" timeLoss="5.54" speed="11.64" speedRelative="0.84" departed="3" arrived="0" entered="0" left="3" laneChangedFrom="0" laneChangedTo="0"/>
        <edge id="-1113320866" sampledSeconds="1.20" traveltime="1.10" overlapTraveltime="1.66" density="0.03" laneDensity="0.03" occupancy="0.01" waitingTime="0.00" timeLoss="0.36" speed="8.97" speedRelative="0.65" departed="0" arrived="1" entered="1" left="0" laneChangedFrom="0" laneChangedTo="0"/>
        <edge id="-1126916437" sampledSeconds="9.59" traveltime="2.39" overlapTraveltime="3.25" density="0.28" laneDensity="0.28" occupancy="0.10" waitingTime="0.00" timeLoss="4.38" speed="4.51" speedRelative="0.32" departed="3" arrived="0" entered="1" left="4" laneChangedFrom="0" laneChangedTo="0"/>
        <edge id="-1127432025" sampledSeconds="13.25" traveltime="0.84" overlapTraveltime="1.89" density="1.55" laneDensity="1.55" occupancy="0.26" waitingTime="1.00" timeLoss="5.65" speed="3.89" speedRelative="0.28" departed="0" arrived="0" entered="7" left="7" laneChangedFrom="0" laneChangedTo="0"/>
        <edge id="-1131113895" sampledSeconds="7.17" traveltime="0.84" overlapTraveltime="2.47" density="0.68" laneDensity="0.68" occupancy="0.15" waitingTime="0.00" timeLoss="4.32" speed="3.20" speedRelative="0.23" departed="3" arrived="0" entered="1" left="4" laneChangedFrom="0" laneChangedTo="0"/>
        <edge id="-1131116642" sampledSeconds="3.73" overlapTraveltime="3.16" density="0.30" laneDensity="0.30" occupancy="0.08" waitingTime="0.00" timeLoss="2.30" speed="2.68" speedRelative="0.19" departed="2" arrived="0" entered="0" left="2" laneChangedFrom="0" laneChangedTo="0"/>
        <edge id="-1133083733" sampledSeconds="5.33" overlapTraveltime="1.85" density="7.41" laneDensity="7.41" occupancy="0.15" waitingTime="0.00" timeLoss="3.36" speed="2.81" speedRelative="0.20" departed="3" arrived="0" entered="0" left="3" laneChangedFrom="0" laneChangedTo="0"/>
        <edge id="-115131706#0" sampledSeconds="3.91" traveltime="0.04" overlapTraveltime="1.30" density="5.44" laneDensity="5.44" occupancy="0.10" waitingTime="0.00" timeLoss="1.83" speed="4.00" speedRelative="0.29" departed="0" arrived="3" entered="5" left="2" laneChangedFrom="0" laneChangedTo="0"/>
        <edge id="-115131706#1" sampledSeconds="6.39" traveltime="0.44" overlapTraveltime="0.91" density="0.36" laneDensity="0.36" occupancy="0.09" waitingTime="0.00" timeLoss="0.94" speed="10.92" speedRelative="0.79" departed="0" arrived="2" entered="7" left="5" laneChangedFrom="0" laneChangedTo="0"/>
        <edge id="-115131707" sampledSeconds="42.02" traveltime="20.72" overlapTraveltime="21.10" density="0.05" laneDensity="0.05" occupancy="0.02" waitingTime="0.00" timeLoss="5.12" speed="12.13" speedRelative="0.87" departed="0" arrived="2" entered="2" left="0" laneChangedFrom="0" laneChangedTo="0"/>
        <edge id="-1153652155#1" sampledSeconds="33.04" traveltime="7.99" overlapTraveltime="8.40" density="0.11" laneDensity="0.11" occupancy="0.05" waitingTime="0.00" timeLoss="6.43" speed="10.75" speedRelative="0.77" departed="0" arrived="4" entered="4" left="0" laneChangedFrom="0" laneChangedTo="0"/>
        <edge id="-1155418505" sampledSeconds="19.56" traveltime="4.59" overlapTraveltime="4.98" density="0.11" laneDensity="0.11" occupancy="0.05" waitingTime="0.00" timeLoss="4.63" speed="10.59" speedRelative="0.76" departed="0" arrived="4" entered="4" left="0" laneChangedFrom="0" laneChangedTo="0"/>
        <edge id="-1168174954" sampledSeconds="55.41" traveltime="17.73" overlapTraveltime="19.01" density="0.09" laneDensity="0.09" occupancy="0.04" waitingTime="6.00" timeLoss="13.34" speed="9.47" speedRelative="0.68" departed="3" arrived="0" entered="0" left="3" laneChangedFrom="0" laneChangedTo="0"/>
        <edge id="-117177767#1" sampledSeconds="57.89" traveltime="9.40" overlapTraveltime="9.80" density="0.15" laneDensity="0.15" occupancy="0.07" waitingTime="0.00" timeLoss="9.68" speed="11.18" speedRelative="0.81" departed="0" arrived="6" entered="6" left="0" laneChangedFrom="0" laneChangedTo="0"/>
        <edge id="-117177767#2" sampledSeconds="26.09" traveltime="5.01" overlapTraveltime="5.62" density="0.11" laneDensity="0.11" occupancy="0.05" waitingTime="0.00" timeLoss="1.73" speed="12.70" speedRelative="0.91" departed="5" arrived="0" entered="0" left="5" laneChangedFrom="0" laneChangedTo="0"/>
        <edge id="-1174964063" sampledSeconds="19.78" traveltime="2.83" overlapTraveltime="3.64" density="0.31" laneDensity="0.31" occupancy="0.13" waitingTime="0.00" timeLoss="8.20" speed="6.24" speedRelative="0.45" departed="7" arrived="0" entered="0" left="7" laneChangedFrom="0" laneChangedTo="0"/>
        <edge id="-1190123897#1" sampledSeconds="5.95" traveltime="5.74" overlapTraveltime="6.40" density="0.02" laneDensity="0.02" occupancy="0.01" waitingTime="0.00" timeLoss="1.07" speed="11.45" speedRelative="0.82" departed="1" arrived="0" entered="0" left="1" laneChangedFrom="0" laneChangedTo="0"/>
        <edge id="-1205368122" sampledSeconds="16.63" traveltime="2.38" overlapTraveltime="3.31" density="0.35" laneDensity="0.35" occupancy="0.14" waitingTime="0.00" timeLoss="5.36" speed="5.46" speedRelative="0.39" departed="7" arrived="0" entered="0" left="7" laneChangedFrom="0" laneChangedTo="0"/>
        <edge id="-120547463" sampledSeconds="45.08" traveltime="14.61" overlapTraveltime="15.05" density="0.08" laneDensity="0.08" occupancy="0.04" waitingTime="0.00" timeLoss="5.84" speed="10.93" speedRelative="0.79" departed="0" arrived="2" entered="3" left="1" laneChangedFrom="0" laneChangedTo="0"/>
        <edge id="-1206055234" sampledSeconds="8.98" traveltime="0.52" overlapTraveltime="1.36" density="0.82" laneDensity="0.82" occupancy="0.16" waitingTime="0.00" timeLoss="5.06" speed="5.92" speedRelative="0.43" departed="1" arrived="0" entered="6" left="7" laneChangedFrom="0" laneChangedTo="0"/>
        <edge id="-1206055235" sampledSeconds="12.26" traveltime="0.05" overlapTraveltime="1.11" density="17.03" laneDensity="17.03" occupancy="0.33" waitingTime="0.00" timeLoss="4.37" speed="4.70" speedRelative="0.34" departed="0" arrived="1" entered="12" left="11" laneChangedFrom="0" laneChangedTo="0"/>
        <edge id="-120623183#2" sampledSeconds="10.58" traveltime="4.80" overlapTraveltime="5.29" density="0.05" laneDensity="0.05" occupancy="0.02" waitingTime="0.00" timeLoss="1.20" speed="12.93" speedRelative="0.93" departed="0" arrived="1" entered="2" left="1" laneChangedFrom="0" laneChangedTo="0"/>
        <edge id="-120623183#5" sampledSeconds="123.72" traveltime="14.39" overlapTraveltime="15.46" density="0.20" laneDensity="0.20" occupancy="0.09" waitingTime="0.00" timeLoss="15.46" speed="11.64" speedRelative="0.84" departed="0" arrived="0" entered="8" left="8" laneChangedFrom="0" laneChangedTo="0"/>
        <edge id="-1211778520" sampledSeconds="13.87" traveltime="0.02" overlapTraveltime="0.70" density="19.26" laneDensity="9.63" occupancy="0.18" waitingTime="1.00" timeLoss="7.71" speed="7.47" speedRelative="0.27" departed="0" arrived="2" entered="20" left="18" laneChangedFrom="0" laneChangedTo="0"/>
        <edge id="-1212260217" sampledSeconds="16.84" traveltime="3.96" overlapTraveltime="4.78" density="0.12" laneDensity="0.12" occupancy="0.06" waitingTime="0.00" timeLoss="4.19" speed="8.93" speedRelative="0.64" departed="4" arrived="0" entered="0" left="4" laneChangedFrom="0" laneChangedTo="0"/>
        <edge id="-1214120999#1" sampledSeconds="5.08" traveltime="4.72" overlapTraveltime="5.08" density="0.03" laneDensity="0.03" occupancy="0.01" waitingTime="0.00" timeLoss="1.46" speed="10.51" speedRelative="0.76" departed="0" arrived="1" entered="1" left="0" laneChangedFrom="0" laneChangedTo="0"/>
        <edge id="-1214280620#0" sampledSeconds="134.39" traveltime="12.18" overlapTraveltime="13.44" density="1.15" laneDensity="1.15" occupancy="0.54" waitingTime="66.00" timeLoss="105.22" speed="2.79" speedRelative="0.20" departed="0" arrived="0" entered="10" left="10" laneChangedFrom="0" laneChangedTo="0"/>
        <edge id="-1214280620#1" sampledSeconds="8.76" traveltime="2.45" overlapTraveltime="3.34" density="0.42" laneDensity="0.42" occupancy="0.14" waitingTime="0.00" timeLoss="4.59" speed="3.22" speedRelative="0.23" departed="5" arrived="0" entered="0" left="5" laneChangedFrom="0" laneChangedTo="0"/>
        <edge id="-1214280621" sampledSeconds="7.06" traveltime="0.07" overlapTraveltime="0.90" density="9.80" laneDensity="9.80" occupancy="0.19" waitingTime="0.00" timeLoss="2.48" speed="5.78" speedRelative="0.42" departed="4" arrived="0" entered="4" left="8" laneChangedFrom="0" laneChangedTo="0"/>
        <edge id="-1215908174" sampledSeconds="0.00" departed="0" arrived="0" entered="0" left="0" laneChangedFrom="0" laneChangedTo="0"/>
        <edge id="-122119126" sampledSeconds="0.00" departed="0" arrived="0" entered="0" left="0" laneChangedFrom="0" laneChangedTo="0"/>
        <edge id="-1229200373" sampledSeconds="10.04" traveltime="4.54" overlapTraveltime="5.39" density="0.09" laneDensity="0.09" occupancy="0.04" waitingTime="0.00" timeLoss="4.13" speed="6.85" speedRelative="0.49" departed="1" arrived="0" entered="1" left="2" laneChangedFrom="0" laneChangedTo="0"/>
        <edge id="-1237215041#0" sampledSeconds="65.15" traveltime="2.29" overlapTraveltime="2.76" density="0.76" laneDensity="0.76" occupancy="0.32" waitingTime="0.00" timeLoss="15.71" speed="10.43" speedRelative="0.75" departed="2" arrived="0" entered="22" left="24" laneChangedFrom="0" laneChangedTo="0"/>
        <edge id="-1237215041#4" sampledSeconds="247.07" traveltime="11.33" overlapTraveltime="11.78" density="0.48" laneDensity="0.48" occupancy="0.23" waitingTime="0.00" timeLoss="22.88" speed="12.65" speedRelative="0.91" departed="1" arrived="0" entered="20" left="21" laneChangedFrom="0" laneChangedTo="0"/>
        <edge id="-1237215041#5" sampledSeconds="149.60" traveltime="7.13" overlapTraveltime="7.93" density="0.56" laneDensity="0.56" occupancy="0.26" waitingTime="1.00" timeLoss="43.50" speed="10.00" speedRelative="0.72" departed="2" arrived="0" entered="17" left="19" laneChangedFrom="0" laneChangedTo="0"/>
        <edge id="-1237215042#1" sampledSeconds="465.43" traveltime="2.11" overlapTraveltime="2.39" density="3.16" laneDensity="3.16" occupancy="1.40" waitingTime="0.00" timeLoss="51.97" speed="19.21" speedRelative="0.86" departed="0" arrived="0" entered="195" left="195" laneChangedFrom="0" laneChangedTo="0"/>
        <edge id="-1237215042#3" sampledSeconds="434.71" traveltime="1.97" overlapTraveltime="2.24" density="3.17" laneDensity="3.17" occupancy="1.40" waitingTime="0.00" timeLoss="48.77" speed="19.25" speedRelative="0.87" departed="2" arrived="0" entered="193" left="194" laneChangedFrom="0" laneChangedTo="0"/>
        <edge id="-1237215042#4" sampledSeconds="340.57" traveltime="1.56" overlapTraveltime="1.81" density="3.12" laneDensity="3.12" occupancy="1.34" waitingTime="0.00" timeLoss="37.56" speed="19.52" speedRelative="0.88" departed="1" arrived="2" entered="188" left="186" laneChangedFrom="0" laneChangedTo="0"/>
        <edge id="-1237215042#7" sampledSeconds="416.75" traveltime="2.03" overlapTraveltime="2.28" density="2.99" laneDensity="2.99" occupancy="1.32" waitingTime="0.00" timeLoss="52.54" speed="19.16" speedRelative="0.86" departed="2" arrived="0" entered="181" left="183" laneChangedFrom="0" laneChangedTo="0"/>
        <edge id="-1237215042#9" sampledSeconds="618.19" traveltime="3.31" overlapTraveltime="3.58" density="3.39" laneDensity="3.39" occupancy="1.54" waitingTime="0.00" timeLoss="177.48" speed="15.57" speedRelative="0.70" departed="1" arrived="0" entered="172" left="173" laneChangedFrom="0" laneChangedTo="0"/>
        <edge id="-1237215043#1" sampledSeconds="66.10" traveltime="3.23" overlapTraveltime="3.67" density="0.43" laneDensity="0.43" occupancy="0.19" waitingTime="0.00" timeLoss="4.95" speed="12.99" speedRelative="0.94" departed="0" arrived="0" entered="18" left="18" laneChangedFrom="0" laneChangedTo="0"/>
        <edge id="-1237215043#3" sampledSeconds="130.72" traveltime="6.50" overlapTraveltime="6.90" density="0.46" laneDensity="0.46" occupancy="0.22" waitingTime="0.00" timeLoss="18.90" speed="12.06" speedRelative="0.87" departed="1" arrived="0" entered="18" left="19" laneChangedFrom="0" laneChangedTo="0"/>
        <edge id="-1259664877#0" sampledSeconds="262.78" traveltime="1.32" overlapTraveltime="1.58" density="2.87" laneDensity="2.87" occupancy="1.20" waitingTime="0.00" timeLoss="30.35" speed="19.23" speedRelative="0.87" departed="0" arrived="2" entered="166" left="164" laneChangedFrom="0" laneChangedTo="0"/>
        <edge id="-1259664877#1" sampledSeconds="238.35" traveltime="1.19" overlapTraveltime="1.46" density="3.21" laneDensity="3.21" occupancy="1.29" waitingTime="0.00" timeLoss="46.46" speed="17.53" speedRelative="0.79" departed="0" arrived="0" entered="163" left="163" laneChangedFrom="0" laneChangedTo="0"/>
        <edge id="-1259664877#13" sampledSeconds="115.34" traveltime="4.13" overlapTraveltime="4.45" density="0.55" laneDensity="0.55" occupancy="0.25" waitingTime="0.00" timeLoss="39.47" speed="14.14" speedRelative="0.64" departed="1" arrived="0" entered="25" left="26" laneChangedFrom="0" laneChangedTo="0"/>
        <edge id="-1259664877#14" sampledSeconds="27.18" traveltime="1.53" overlapTraveltime="1.81" density="0.32" laneDensity="0.32" occupancy="0.13" waitingTime="0.00" timeLoss="7.64" speed="15.76" speedRelative="0.71" departed="0" arrived="0" entered="15" left="15" laneChangedFrom="0" laneChangedTo="0"/>
        <edge id="-1259664877#15" sampledSeconds="19.58" traveltime="1.16" overlapTraveltime="1.51" density="0.39" laneDensity="0.39" occupancy="0.14" waitingTime="0.00" timeLoss="8.53" speed="12.58" speedRelative="0.57" departed="0" arrived="0" entered="13" left="13" laneChangedFrom="0" laneChangedTo="0"/>
        <edge id="-1259664877#7" sampledSeconds="844.33" traveltime="5.83" overlapTraveltime="6.08" density="2.10" laneDensity="2.10" occupancy="1.00" waitingTime="0.00" timeLoss="103.55" speed="19.23" speedRelative="0.87" departed="1" arrived="0" entered="138" left="139" laneChangedFrom="0" laneChangedTo="0"/>
        <edge id="-1259664877#8" sampledSeconds="400.78" traveltime="2.58" overlapTraveltime="2.93" density="3.73" laneDensity="3.73" occupancy="1.58" waitingTime="0.00" timeLoss="182.31" speed="11.90" speedRelative="0.54" departed="1" arrived="1" entered="136" left="136" laneChangedFrom="0" laneChangedTo="0"/>
        <edge id="-1259664878#1" sampledSeconds="3891.83" traveltime="18.29" overlapTraveltime="19.27" density="4.74" laneDensity="4.74" occupancy="2.30" waitingTime="665.00" timeLoss="1742.48" speed="12.10" speedRelative="0.54" departed="1" arrived="2" entered="201" left="200" laneChangedFrom="0" laneChangedTo="0"/>
        <edge id="-1259664884#1" sampledSeconds="1995.56" traveltime="11.14" overlapTraveltime="12.04" density="6.78" laneDensity="6.78" occupancy="3.24" waitingTime="678.00" timeLoss="1310.65" speed="7.20" speedRelative="0.32" departed="0" arrived="0" entered="166" left="164" laneChangedFrom="0" laneChangedTo="0"/>
        <edge id="-1259664884#4" sampledSeconds="371.76" traveltime="2.04" overlapTraveltime="2.28" density="2.48" laneDensity="2.48" occupancy="1.11" waitingTime="0.00" timeLoss="21.73" speed="20.44" speedRelative="0.92" departed="0" arrived="0" entered="163" left="163" laneChangedFrom="0" laneChangedTo="0"/>
        <edge id="-1259664884#5" sampledSeconds="254.87" traveltime="1.32" overlapTraveltime="1.56" density="2.74" laneDensity="2.74" occupancy="1.15" waitingTime="0.00" timeLoss="23.49" speed="19.70" speedRelative="0.89" departed="0" arrived="0" entered="163" left="163" laneChangedFrom="0" laneChangedTo="0"/>
        <edge id="-1259664884#7" sampledSeconds="678.72" traveltime="3.85" overlapTraveltime="4.14" density="2.93" laneDensity="2.93" occupancy="1.35" waitingTime="0.00" timeLoss="150.58" speed="16.74" speedRelative="0.75" departed="2" arrived="0" entered="162" left="164" laneChangedFrom="0" laneChangedTo="0"/>
        <edge id="-1259708343" sampledSeconds="923.68" traveltime="6.82" overlapTraveltime="7.91" density="61.68" laneDensity="30.84" occupancy="9.09" waitingTime="606.00" timeLoss="853.26" speed="1.16" speedRelative="0.04" departed="0" arrived="1" entered="117" left="116" laneChangedFrom="0" laneChangedTo="0"/>
        <edge id="-1267029558#1" sampledSeconds="742.82" traveltime="3.51" overlapTraveltime="4.32" density="3.58" laneDensity="3.58" occupancy="1.52" waitingTime="41.00" timeLoss="213.41" speed="14.50" speedRelative="0.65" departed="1" arrived="0" entered="171" left="172" laneChangedFrom="0" laneChangedTo="0"/>
        <edge id="-1267029558#3" sampledSeconds="640.68" traveltime="3.55" overlapTraveltime="3.79" density="2.46" laneDensity="2.46" occupancy="1.15" waitingTime="0.00" timeLoss="37.09" speed="20.40" speedRelative="0.92" departed="0" arrived="0" entered="169" left="169" laneChangedFrom="0" laneChangedTo="0"/>
        <edge id="-1267033587#0" sampledSeconds="3696.52" traveltime="11.04" overlapTraveltime="12.08" density="15.03" laneDensity="15.03" occupancy="7.14" waitingTime="1108.00" timeLoss="2518.92" speed="6.07" speedRelative="0.27" departed="1" arrived="0" entered="305" left="306" laneChangedFrom="0" laneChangedTo="0"/>
        <edge id="-1267033587#2" sampledSeconds="1640.80" traveltime="5.08" overlapTraveltime="5.33" density="4.42" laneDensity="4.42" occupancy="2.11" waitingTime="0.00" timeLoss="131.69" speed="20.28" speedRelative="0.91" departed="0" arrived="1" entered="308" left="307" laneChangedFrom="0" laneChangedTo="0"/>
        <edge id="-1267033587#5" sampledSeconds="1284.01" traveltime="3.93" overlapTraveltime="4.21" density="4.49" laneDensity="4.49" occupancy="2.10" waitingTime="1.00" timeLoss="109.28" speed="20.05" speedRelative="0.90" departed="1" arrived="0" entered="304" left="305" laneChangedFrom="0" laneChangedTo="0"/>
        <edge id="-1267033588" sampledSeconds="14.92" traveltime="13.02" overlapTraveltime="14.92" density="0.03" laneDensity="0.03" occupancy="0.01" waitingTime="0.00" timeLoss="4.52" speed="10.30" speedRelative="0.74" departed="0" arrived="0" entered="1" left="1" laneChangedFrom="0" laneChangedTo="0"/>
        <edge id="-1272494548" sampledSeconds="11.25" traveltime="4.69" overlapTraveltime="5.63" density="0.06" laneDensity="0.06" occupancy="0.03" waitingTime="0.00" timeLoss="1.63" speed="10.51" speedRelative="0.76" departed="0" arrived="1" entered="2" left="1" laneChangedFrom="0" laneChangedTo="0"/>
        <edge id="-1278964458" sampledSeconds="299.15" traveltime="1.50" overlapTraveltime="1.75" density="2.31" laneDensity="1.16" occupancy="0.50" waitingTime="3.00" timeLoss="42.79" speed="23.36" speedRelative="0.84" departed="2" arrived="0" entered="169" left="171" laneChangedFrom="1" laneChangedTo="1"/>
        <edge id="-1278964459" sampledSeconds="272.37" traveltime="1.29" overlapTraveltime="1.53" density="2.75" laneDensity="1.37" occupancy="0.58" waitingTime="1.00" timeLoss="60.93" speed="21.21" speedRelative="0.76" departed="3" arrived="1" entered="175" left="177" laneChangedFrom="2" laneChangedTo="2"/>
        <edge id="-1278964460#1" sampledSeconds="427.98" traveltime="2.17" overlapTraveltime="2.40" density="2.36" laneDensity="1.18" occupancy="0.54" waitingTime="0.00" timeLoss="66.70" speed="23.06" speedRelative="0.83" departed="2" arrived="3" entered="177" left="176" laneChangedFrom="9" laneChangedTo="9"/>
        <edge id="-1281066517" sampledSeconds="0.00" departed="0" arrived="0" entered="0" left="0" laneChangedFrom="0" laneChangedTo="0"/>
        <edge id="-1290133351" sampledSeconds="16.08" traveltime="3.85" overlapTraveltime="4.64" density="0.14" laneDensity="0.14" occupancy="0.06" waitingTime="0.00" timeLoss="4.65" speed="8.19" speedRelative="0.59" departed="4" arrived="0" entered="0" left="4" laneChangedFrom="0" laneChangedTo="0"/>
        <edge id="-1290133352" sampledSeconds="22.28" traveltime="4.13" overlapTraveltime="5.07" density="0.22" laneDensity="0.22" occupancy="0.09" waitingTime="0.00" timeLoss="8.98" speed="6.65" speedRelative="0.48" departed="4" arrived="0" entered="1" left="5" laneChangedFrom="0" laneChangedTo="0"/>
        <edge id="-1290133353" sampledSeconds="20.13" traveltime="3.77" overlapTraveltime="4.55" density="0.18" laneDensity="0.18" occupancy="0.08" waitingTime="0.00" timeLoss="6.62" speed="7.78" speedRelative="0.56" departed="4" arrived="0" entered="1" left="5" laneChangedFrom="0" laneChangedTo="0"/>
        <edge id="-1290176908" sampledSeconds="7.21" traveltime="7.20" overlapTraveltime="8.05" density="0.05" laneDensity="0.05" occupancy="0.02" waitingTime="0.00" timeLoss="3.13" speed="6.09" speedRelative="0.44" departed="1" arrived="0" entered="0" left="1" laneChangedFrom="0" laneChangedTo="0"/>
        <edge id="-1290199592" sampledSeconds="21.42" traveltime="5.08" overlapTraveltime="6.11" density="0.16" laneDensity="0.16" occupancy="0.08" waitingTime="2.00" timeLoss="7.91" speed="6.73" speedRelative="0.48" departed="4" arrived="0" entered="0" left="4" laneChangedFrom="0" laneChangedTo="0"/>
        <edge id="-1290199593" sampledSeconds="7.60" traveltime="2.43" overlapTraveltime="2.93" density="0.10" laneDensity="0.10" occupancy="0.04" waitingTime="0.00" timeLoss="2.88" speed="8.66" speedRelative="0.62" departed="2" arrived="0" entered="1" left="3" laneChangedFrom="0" laneChangedTo="0"/>
        <edge id="-1290205252" sampledSeconds="3.33" traveltime="3.11" overlapTraveltime="4.25" density="0.05" laneDensity="0.05" occupancy="0.02" waitingTime="0.00" timeLoss="1.20" speed="5.58" speedRelative="0.40" departed="1" arrived="0" entered="0" left="1" laneChangedFrom="0" laneChangedTo="0"/>
        <edge id="-1297690856" sampledSeconds="18.86" traveltime="3.56" overlapTraveltime="4.20" density="0.21" laneDensity="0.21" occupancy="0.09" waitingTime="0.00" timeLoss="7.18" speed="7.08" speedRelative="0.51" departed="3" arrived="0" entered="2" left="5" laneChangedFrom="0" laneChangedTo="0"/>
        <edge id="-130819415#3" sampledSeconds="63.85" traveltime="20.01" overlapTraveltime="21.51" density="0.11" laneDensity="0.11" occupancy="0.05" waitingTime="14.00" timeLoss="28.62" speed="7.47" speedRelative="0.54" departed="1" arrived="0" entered="2" left="3" laneChangedFrom="0" laneChangedTo="0"/>
        <edge id="-130819447" sampledSeconds="9.57" traveltime="2.28" overlapTraveltime="2.88" density="0.11" laneDensity="0.11" occupancy="0.05" waitingTime="0.00" timeLoss="1.37" speed="10.50" speedRelative="0.76" departed="4" arrived="0" entered="0" left="4" laneChangedFrom="0" laneChangedTo="0"/>
        <edge id="-130820266#1" sampledSeconds="191.82" traveltime="8.52" overlapTraveltime="9.14" density="0.60" laneDensity="0.60" occupancy="0.28" waitingTime="0.00" timeLoss="48.66" speed="10.20" speedRelative="0.73" departed="0" arrived="1" entered="21" left="20" laneChangedFrom="0" laneChangedTo="0"/>
        <edge id="-130820269#0" sampledSeconds="9.85" traveltime="3.01" overlapTraveltime="3.37" density="0.07" laneDensity="0.07" occupancy="0.03" waitingTime="0.00" timeLoss="0.59" speed="13.54" speedRelative="0.97" departed="0" arrived="3" entered="3" left="0" laneChangedFrom="0" laneChangedTo="0"/>
        <edge id="-130820269#2" sampledSeconds="89.12" traveltime="4.59" overlapTraveltime="5.24" density="0.56" laneDensity="0.56" occupancy="0.25" waitingTime="0.00" timeLoss="23.99" speed="9.34" speedRelative="0.67" departed="0" arrived="0" entered="17" left="17" laneChangedFrom="0" laneChangedTo="0"/>
        <edge id="-130820269#3" sampledSeconds="97.83" traveltime="3.56" overlapTraveltime="4.25" density="0.66" laneDensity="0.66" occupancy="0.29" waitingTime="0.00" timeLoss="17.25" speed="10.84" speedRelative="0.78" departed="0" arrived="1" entered="23" left="22" laneChangedFrom="0" laneChangedTo="0"/>
        <edge id="-130820269#4" sampledSeconds="122.72" traveltime="3.86" overlapTraveltime="4.38" density="0.78" laneDensity="0.78" occupancy="0.34" waitingTime="0.00" timeLoss="23.31" speed="11.08" speedRelative="0.80" departed="0" arrived="1" entered="28" left="27" laneChangedFrom="0" laneChangedTo="0"/>
        <edge id="-130820269#5" sampledSeconds="109.21" traveltime="4.58" overlapTraveltime="4.98" density="0.51" laneDensity="0.51" occupancy="0.23" waitingTime="0.00" timeLoss="8.93" speed="13.03" speedRelative="0.94" departed="1" arrived="0" entered="21" left="22" laneChangedFrom="0" laneChangedTo="0"/>
        <edge id="-130820269#7" sampledSeconds="411.57" traveltime="6.21" overlapTraveltime="6.87" density="1.90" laneDensity="1.90" occupancy="0.85" waitingTime="0.00" timeLoss="110.58" speed="9.46" speedRelative="0.68" departed="0" arrived="2" entered="60" left="58" laneChangedFrom="0" laneChangedTo="0"/>
        <edge id="-130821718#0" sampledSeconds="537.00" traveltime="17.26" overlapTraveltime="18.52" density="2.04" laneDensity="2.04" occupancy="0.97" waitingTime="227.00" timeLoss="371.89" speed="4.22" speedRelative="0.30" departed="0" arrived="0" entered="29" left="29" laneChangedFrom="0" laneChangedTo="0"/>
        <edge id="-130821718#1" sampledSeconds="4.53" traveltime="0.56" overlapTraveltime="1.74" density="0.43" laneDensity="0.43" occupancy="0.09" waitingTime="0.00" timeLoss="3.04" speed="4.54" speedRelative="0.33" departed="1" arrived="2" entered="3" left="2" laneChangedFrom="0" laneChangedTo="0"/>
        <edge id="-130822232#1" sampledSeconds="619.16" traveltime="1.58" overlapTraveltime="2.29" density="17.55" laneDensity="17.55" occupancy="6.13" waitingTime="7.00" timeLoss="331.08" speed="6.45" speedRelative="0.46" departed="0" arrived="0" entered="270" left="270" laneChangedFrom="0" laneChangedTo="0"/>
        <edge id="-130822232#4" sampledSeconds="2875.13" traveltime="10.22" overlapTraveltime="10.73" density="6.36" laneDensity="6.36" occupancy="3.05" waitingTime="18.00" timeLoss="351.90" speed="12.18" speedRelative="0.88" departed="0" arrived="0" entered="268" left="268" laneChangedFrom="0" laneChangedTo="0"/>
        <edge id="-130822232#6" sampledSeconds="1730.83" traveltime="6.08" overlapTraveltime="6.46" density="7.48" laneDensity="7.48" occupancy="3.39" waitingTime="0.00" timeLoss="393.07" speed="10.73" speedRelative="0.77" departed="0" arrived="1" entered="268" left="267" laneChangedFrom="0" laneChangedTo="0"/>