<?xml version="1.0" encoding="UTF-8"?>

<!-- generated on 2025-08-18 13:42:08 by Eclipse SUMO GUI Version 1.24.0
<sumoConfiguration xmlns:xsi="http://www.w3.org/2001/XMLSchema-instance" xsi:noNamespaceSchemaLocation="http://sumo.dlr.de/xsd/sumoConfiguration.xsd">

    <input>
        <net-file value="/home/kulla/Sumo/2025-08-18-13-41-56/osm.net.xml.gz"/>
        <route-files value="/home/kulla/Sumo/2025-08-18-13-41-56/osm.passenger.trips.xml"/>
        <additional-files value="/home/kulla/Sumo/2025-08-18-13-41-56/osm.poly.xml.gz,/home/kulla/Sumo/2025-08-18-13-41-56/output.add.xml"/>
    </input>

    <output>
        <tripinfo-output value="/home/kulla/Sumo/2025-08-18-13-41-56/tripinfos.xml"/>
        <statistic-output value="/home/kulla/Sumo/2025-08-18-13-41-56/stats.xml"/>
    </output>

    <processing>
        <ignore-route-errors value="true"/>
        <tls.actuated.jam-threshold value="30"/>
    </processing>

    <routing>
        <device.rerouting.adaptation-steps value="18"/>
        <device.rerouting.adaptation-interval value="10"/>
    </routing>

    <report>
        <verbose value="true"/>
        <duration-log.statistics value="true"/>
        <no-step-log value="true"/>
    </report>

    <gui_only>
        <gui-settings-file value="/home/kulla/Sumo/2025-08-18-13-41-56/osm.view.xml"/>
    </gui_only>

</sumoConfiguration>
-->

<tripinfos xmlns:xsi="http://www.w3.org/2001/XMLSchema-instance" xsi:noNamespaceSchemaLocation="http://sumo.dlr.de/xsd/tripinfo_file.xsd">
</tripinfos>
