<?xml version="1.0" encoding="UTF-8"?>

<!-- generated on 2025-08-20 17:10:45 by Eclipse SUMO sumo Version 1.24.0
<sumoConfiguration xmlns:xsi="http://www.w3.org/2001/XMLSchema-instance" xsi:noNamespaceSchemaLocation="http://sumo.dlr.de/xsd/sumoConfiguration.xsd">

    <input>
        <net-file value="osm.net.xml.gz"/>
        <route-files value="osm.passenger.trips.xml"/>
        <additional-files value="osm.poly.xml.gz,output.add.xml"/>
    </input>

    <output>
        <tripinfo-output value="tripinfos.xml"/>
        <statistic-output value="stats.xml"/>
    </output>

    <processing>
        <ignore-route-errors value="true"/>
        <tls.actuated.jam-threshold value="30"/>
    </processing>

    <routing>
        <device.rerouting.adaptation-steps value="18"/>
        <device.rerouting.adaptation-interval value="10"/>
    </routing>

    <report>
        <verbose value="true"/>
        <duration-log.statistics value="true"/>
        <no-step-log value="true"/>
    </report>

    <traci_server>
        <remote-port value="42285"/>
    </traci_server>

    <gui_only>
        <gui-settings-file value="osm.view.xml"/>
    </gui_only>

</sumoConfiguration>
-->

<tripinfos xmlns:xsi="http://www.w3.org/2001/XMLSchema-instance" xsi:noNamespaceSchemaLocation="http://sumo.dlr.de/xsd/tripinfo_file.xsd">
    <tripinfo id="veh4" depart="4.00" departLane="130820269#0_0" departPos="5.10" departSpeed="14.31" departDelay="0.01" arrival="82.00" arrivalLane="-134369588#1_0" arrivalPos="50.82" arrivalSpeed="13.82" duration="78.00" routeLength="855.32" waitingTime="0.00" waitingCount="0" stopTime="0.00" timeLoss="14.66" rerouteNo="1" devices="tripinfo_veh4 routing_veh4" vType="veh_passenger" speedFactor="1.03" vaporized=""/>
    <tripinfo id="veh1" depart="1.00" departLane="-696534015_0" departPos="2.76" departSpeed="0.00" departDelay="0.00" arrival="83.00" arrivalLane="-457444362_0" arrivalPos="33.69" arrivalSpeed="12.93" duration="82.00" routeLength="875.29" waitingTime="13.00" waitingCount="1" stopTime="0.00" timeLoss="28.35" rerouteNo="1" devices="tripinfo_veh1 routing_veh1" vType="veh_passenger" speedFactor="0.94" vaporized=""/>
    <tripinfo id="veh41" depart="41.00" departLane="-21024531_0" departPos="5.10" departSpeed="0.00" departDelay="0.07" arrival="103.00" arrivalLane="-164438339#0_0" arrivalPos="33.29" arrivalSpeed="12.96" duration="62.00" routeLength="753.03" waitingTime="0.00" waitingCount="0" stopTime="0.00" timeLoss="12.80" rerouteNo="1" devices="tripinfo_veh41 routing_veh41" vType="veh_passenger" speedFactor="0.96" vaporized=""/>
    <tripinfo id="veh3" depart="3.00" departLane="701937782#0_2" departPos="5.10" departSpeed="0.00" departDelay="0.01" arrival="112.00" arrivalLane="-20261961#0_0" arrivalPos="0.20" arrivalSpeed="23.09" duration="109.00" routeLength="1737.03" waitingTime="0.00" waitingCount="0" stopTime="0.00" timeLoss="12.83" rerouteNo="1" devices="tripinfo_veh3 routing_veh3" vType="veh_passenger" speedFactor="1.08" vaporized=""/>
    <tripinfo id="veh12" depart="12.00" departLane="90564614#4_0" departPos="5.10" departSpeed="0.00" departDelay="0.02" arrival="116.00" arrivalLane="-90447857_0" arrivalPos="97.97" arrivalSpeed="13.98" duration="104.00" routeLength="1621.81" waitingTime="0.00" waitingCount="0" stopTime="0.00" timeLoss="26.32" rerouteNo="1" devices="tripinfo_veh12 routing_veh12" vType="veh_passenger" speedFactor="1.05" vaporized=""/>
    <tripinfo id="veh9" depart="9.00" departLane="692333610#0_0" departPos="5.10" departSpeed="0.00" departDelay="0.02" arrival="118.00" arrivalLane="-1155418505_0" arrivalPos="47.72" arrivalSpeed="11.36" duration="109.00" routeLength="962.10" waitingTime="0.00" waitingCount="0" stopTime="0.00" timeLoss="16.38" rerouteNo="1" devices="tripinfo_veh9 routing_veh9" vType="veh_passenger" speedFactor="0.86" vaporized=""/>
    <tripinfo id="veh2" depart="2.00" departLane="688752799#0_0" departPos="5.10" departSpeed="0.00" departDelay="0.00" arrival="119.00" arrivalLane="47484438_0" arrivalPos="99.07" arrivalSpeed="13.49" duration="117.00" routeLength="1638.06" waitingTime="0.00" waitingCount="0" stopTime="0.00" timeLoss="27.30" rerouteNo="1" devices="tripinfo_veh2 routing_veh2" vType="veh_passenger" speedFactor="1.01" vaporized=""/>
    <tripinfo id="veh13" depart="13.00" departLane="-22376427#5_0" departPos="5.10" departSpeed="0.00" departDelay="0.02" arrival="135.00" arrivalLane="-22758909#7_0" arrivalPos="194.56" arrivalSpeed="14.52" duration="122.00" routeLength="1222.65" waitingTime="0.00" waitingCount="0" stopTime="0.00" timeLoss="22.96" rerouteNo="1" devices="tripinfo_veh13 routing_veh13" vType="veh_passenger" speedFactor="1.12" vaporized=""/>
    <tripinfo id="veh34" depart="34.00" departLane="331472257_0" departPos="5.10" departSpeed="13.82" departDelay="0.06" arrival="137.00" arrivalLane="1149827807_0" arrivalPos="181.49" arrivalSpeed="13.44" duration="103.00" routeLength="1280.46" waitingTime="0.00" waitingCount="0" stopTime="0.00" timeLoss="20.27" rerouteNo="1" devices="tripinfo_veh34 routing_veh34" vType="veh_passenger" speedFactor="0.99" vaporized=""/>
    <tripinfo id="veh22" depart="22.00" departLane="276725915_0" departPos="5.10" departSpeed="13.50" departDelay="0.04" arrival="141.00" arrivalLane="-927558551_0" arrivalPos="70.10" arrivalSpeed="12.71" duration="119.00" routeLength="1018.71" waitingTime="34.00" waitingCount="2" stopTime="0.00" timeLoss="58.99" rerouteNo="1" devices="tripinfo_veh22 routing_veh22" vType="veh_passenger" speedFactor="0.97" vaporized=""/>
    <tripinfo id="veh106" depart="106.00" departLane="-19977502#0_0" departPos="5.10" departSpeed="0.00" departDelay="0.19" arrival="151.00" arrivalLane="-320599202_0" arrivalPos="176.83" arrivalSpeed="13.73" duration="45.00" routeLength="442.57" waitingTime="1.00" waitingCount="1" stopTime="0.00" timeLoss="12.45" rerouteNo="1" devices="tripinfo_veh106 routing_veh106" vType="veh_passenger" speedFactor="1.01" vaporized=""/>
    <tripinfo id="veh78" depart="78.00" departLane="-684702551#1_0" departPos="5.10" departSpeed="13.99" departDelay="0.14" arrival="160.00" arrivalLane="457406888_0" arrivalPos="57.82" arrivalSpeed="13.47" duration="82.00" routeLength="974.33" waitingTime="0.00" waitingCount="0" stopTime="0.00" timeLoss="12.55" rerouteNo="1" devices="tripinfo_veh78 routing_veh78" vType="veh_passenger" speedFactor="1.01" vaporized=""/>
    <tripinfo id="veh95" depart="95.00" departLane="115131707_0" departPos="5.10" departSpeed="0.00" departDelay="0.17" arrival="166.00" arrivalLane="-193289760_0" arrivalPos="87.47" arrivalSpeed="14.06" duration="71.00" routeLength="830.87" waitingTime="0.00" waitingCount="0" stopTime="0.00" timeLoss="12.34" rerouteNo="1" devices="tripinfo_veh95 routing_veh95" vType="veh_passenger" speedFactor="1.06" vaporized=""/>
    <tripinfo id="veh18" depart="18.00" departLane="47484426#0_0" departPos="5.10" departSpeed="0.00" departDelay="0.03" arrival="170.00" arrivalLane="-148886353#1_0" arrivalPos="98.61" arrivalSpeed="11.99" duration="152.00" routeLength="1668.94" waitingTime="7.00" waitingCount="2" stopTime="0.00" timeLoss="41.71" rerouteNo="1" devices="tripinfo_veh18 routing_veh18" vType="veh_passenger" speedFactor="0.94" vaporized=""/>
    <tripinfo id="veh21" depart="21.00" departLane="-22882538#1_0" departPos="5.10" departSpeed="0.00" departDelay="0.04" arrival="173.00" arrivalLane="-696723066#1_0" arrivalPos="6.08" arrivalSpeed="12.75" duration="152.00" routeLength="1700.75" waitingTime="3.00" waitingCount="1" stopTime="0.00" timeLoss="35.04" rerouteNo="1" devices="tripinfo_veh21 routing_veh21" vType="veh_passenger" speedFactor="1.01" vaporized=""/>
    <tripinfo id="veh44" depart="44.00" departLane="97690869#0_0" departPos="5.10" departSpeed="23.18" departDelay="0.08" arrival="174.00" arrivalLane="21262382#2_0" arrivalPos="30.36" arrivalSpeed="13.44" duration="130.00" routeLength="1838.01" waitingTime="14.00" waitingCount="1" stopTime="0.00" timeLoss="42.65" rerouteNo="1" devices="tripinfo_veh44 routing_veh44" vType="veh_passenger" speedFactor="1.04" vaporized=""/>
    <tripinfo id="veh36" depart="36.00" departLane="-695663066_0" departPos="5.10" departSpeed="0.00" departDelay="0.07" arrival="180.00" arrivalLane="-669051631_0" arrivalPos="14.64" arrivalSpeed="7.79" duration="144.00" routeLength="1768.19" waitingTime="0.00" waitingCount="0" stopTime="0.00" timeLoss="25.15" rerouteNo="1" devices="tripinfo_veh36 routing_veh36" vType="veh_passenger" speedFactor="0.97" vaporized=""/>
    <tripinfo id="veh75" depart="75.00" departLane="-19821233#1_0" departPos="5.10" departSpeed="0.00" departDelay="0.14" arrival="187.00" arrivalLane="342881869#7_0" arrivalPos="39.85" arrivalSpeed="21.53" duration="112.00" routeLength="1516.56" waitingTime="18.00" waitingCount="1" stopTime="0.00" timeLoss="39.58" rerouteNo="1" devices="tripinfo_veh75 routing_veh75" vType="veh_passenger" speedFactor="0.98" vaporized=""/>
    <tripinfo id="veh31" depart="31.00" departLane="-88308866#1_0" departPos="5.10" departSpeed="0.00" departDelay="0.06" arrival="188.00" arrivalLane="-695502505_1" arrivalPos="86.14" arrivalSpeed="6.46" duration="157.00" routeLength="2282.01" waitingTime="0.00" waitingCount="0" stopTime="0.00" timeLoss="36.95" rerouteNo="1" devices="tripinfo_veh31 routing_veh31" vType="veh_passenger" speedFactor="1.15" vaporized=""/>
    <tripinfo id="veh99" depart="99.00" departLane="91092564#0_0" departPos="5.10" departSpeed="0.00" departDelay="0.18" arrival="200.00" arrivalLane="965528711#0_0" arrivalPos="77.60" arrivalSpeed="20.77" duration="101.00" routeLength="1557.34" waitingTime="0.00" waitingCount="0" stopTime="0.00" timeLoss="27.27" rerouteNo="1" devices="tripinfo_veh99 routing_veh99" vType="veh_passenger" speedFactor="1.10" vaporized=""/>
    <tripinfo id="veh28" depart="28.00" departLane="22943113#0_0" departPos="5.10" departSpeed="15.72" departDelay="0.05" arrival="201.00" arrivalLane="55692095#2_0" arrivalPos="12.44" arrivalSpeed="11.40" duration="173.00" routeLength="1967.45" waitingTime="1.00" waitingCount="1" stopTime="0.00" timeLoss="40.43" rerouteNo="1" devices="tripinfo_veh28 routing_veh28" vType="veh_passenger" speedFactor="1.13" vaporized=""/>
    <tripinfo id="veh30" depart="30.00" departLane="-642102306_0" departPos="5.10" departSpeed="16.37" departDelay="0.05" arrival="201.00" arrivalLane="-1351121542#6_0" arrivalPos="69.04" arrivalSpeed="18.87" duration="171.00" routeLength="2323.25" waitingTime="0.00" waitingCount="0" stopTime="0.00" timeLoss="40.90" rerouteNo="1" devices="tripinfo_veh30 routing_veh30" vType="veh_passenger" speedFactor="1.18" vaporized=""/>
    <tripinfo id="veh114" depart="114.00" departLane="38429628#0_0" departPos="5.10" departSpeed="0.00" departDelay="0.21" arrival="201.00" arrivalLane="-743764375#5_0" arrivalPos="12.03" arrivalSpeed="6.78" duration="87.00" routeLength="906.78" waitingTime="0.00" waitingCount="0" stopTime="0.00" timeLoss="20.72" rerouteNo="1" devices="tripinfo_veh114 routing_veh114" vType="veh_passenger" speedFactor="1.10" vaporized=""/>
    <tripinfo id="veh29" depart="29.00" departLane="695717814#1_2" departPos="5.10" departSpeed="0.00" departDelay="0.05" arrival="206.00" arrivalLane="690320638#1_0" arrivalPos="63.49" arrivalSpeed="9.16" duration="177.00" routeLength="2052.18" waitingTime="0.00" waitingCount="0" stopTime="0.00" timeLoss="22.09" rerouteNo="1" devices="tripinfo_veh29 routing_veh29" vType="veh_passenger" speedFactor="0.93" vaporized=""/>
    <tripinfo id="veh38" depart="38.00" departLane="238834863_0" departPos="5.10" departSpeed="15.31" departDelay="0.07" arrival="208.00" arrivalLane="789197903#6_0" arrivalPos="17.07" arrivalSpeed="15.12" duration="170.00" routeLength="2651.47" waitingTime="1.00" waitingCount="1" stopTime="0.00" timeLoss="40.50" rerouteNo="1" devices="tripinfo_veh38 routing_veh38" vType="veh_passenger" speedFactor="1.10" vaporized=""/>
    <tripinfo id="veh56" depart="56.00" departLane="689012456#1_2" departPos="5.10" departSpeed="0.00" departDelay="0.10" arrival="208.00" arrivalLane="22802800#0_1" arrivalPos="186.26" arrivalSpeed="11.61" duration="152.00" routeLength="1670.83" waitingTime="0.00" waitingCount="0" stopTime="0.00" timeLoss="28.07" rerouteNo="1" devices="tripinfo_veh56 routing_veh56" vType="veh_passenger" speedFactor="0.90" vaporized=""/>
    <tripinfo id="veh16" depart="16.00" departLane="-927593033_0" departPos="5.10" departSpeed="12.20" departDelay="0.03" arrival="209.00" arrivalLane="22943166#0_0" arrivalPos="125.86" arrivalSpeed="11.66" duration="193.00" routeLength="2433.27" waitingTime="0.00" waitingCount="0" stopTime="0.00" timeLoss="23.99" rerouteNo="1" devices="tripinfo_veh16 routing_veh16" vType="veh_passenger" speedFactor="0.88" vaporized=""/>
    <tripinfo id="veh118" depart="118.00" departLane="-19821704#3_0" departPos="5.10" departSpeed="0.00" departDelay="0.21" arrival="209.00" arrivalLane="-392493390#0_0" arrivalPos="67.92" arrivalSpeed="13.03" duration="91.00" routeLength="1276.44" waitingTime="0.00" waitingCount="0" stopTime="0.00" timeLoss="22.10" rerouteNo="1" devices="tripinfo_veh118 routing_veh118" vType="veh_passenger" speedFactor="0.99" vaporized=""/>
    <tripinfo id="veh0" depart="0.00" departLane="300644153#0_0" departPos="5.10" departSpeed="0.00" departDelay="0.00" arrival="211.00" arrivalLane="-130837933#2_0" arrivalPos="148.52" arrivalSpeed="13.62" duration="211.00" routeLength="2338.19" waitingTime="0.00" waitingCount="0" stopTime="0.00" timeLoss="45.21" rerouteNo="1" devices="tripinfo_veh0 routing_veh0" vType="veh_passenger" speedFactor="1.06" vaporized=""/>
    <tripinfo id="veh6" depart="6.00" departLane="-1290133351_0" departPos="5.10" departSpeed="13.74" departDelay="0.01" arrival="211.00" arrivalLane="-342881869#19_0" arrivalPos="123.31" arrivalSpeed="22.29" duration="205.00" routeLength="2637.54" waitingTime="10.00" waitingCount="1" stopTime="0.00" timeLoss="55.92" rerouteNo="1" devices="tripinfo_veh6 routing_veh6" vType="veh_passenger" speedFactor="1.05" vaporized=""/>
    <tripinfo id="veh120" depart="120.00" departLane="697862991_1" departPos="5.10" departSpeed="0.00" departDelay="0.22" arrival="214.00" arrivalLane="730948912#0_1" arrivalPos="33.26" arrivalSpeed="12.07" duration="94.00" routeLength="1068.90" waitingTime="26.00" waitingCount="1" stopTime="0.00" timeLoss="45.42" rerouteNo="1" devices="tripinfo_veh120 routing_veh120" vType="veh_passenger" speedFactor="0.94" vaporized=""/>
    <tripinfo id="veh76" depart="76.00" departLane="-642102306_0" departPos="5.10" departSpeed="14.34" departDelay="0.14" arrival="219.00" arrivalLane="848395848_0" arrivalPos="14.32" arrivalSpeed="9.29" duration="143.00" routeLength="1944.95" waitingTime="1.00" waitingCount="1" stopTime="0.00" timeLoss="33.67" rerouteNo="1" devices="tripinfo_veh76 routing_veh76" vType="veh_passenger" speedFactor="1.03" vaporized=""/>
    <tripinfo id="veh70" depart="70.00" departLane="97014593_0" departPos="5.10" departSpeed="0.00" departDelay="0.13" arrival="223.00" arrivalLane="38429645_0" arrivalPos="30.29" arrivalSpeed="13.05" duration="153.00" routeLength="1595.80" waitingTime="0.00" waitingCount="0" stopTime="0.00" timeLoss="32.46" rerouteNo="1" devices="tripinfo_veh70 routing_veh70" vType="veh_passenger" speedFactor="1.02" vaporized=""/>
    <tripinfo id="veh112" depart="112.00" departLane="-47484429_0" departPos="5.10" departSpeed="15.26" departDelay="0.20" arrival="223.00" arrivalLane="688758273#1_0" arrivalPos="47.63" arrivalSpeed="14.74" duration="111.00" routeLength="1658.36" waitingTime="0.00" waitingCount="0" stopTime="0.00" timeLoss="20.65" rerouteNo="1" devices="tripinfo_veh112 routing_veh112" vType="veh_passenger" speedFactor="1.10" vaporized=""/>
    <tripinfo id="veh33" depart="33.00" departLane="697214214#2_0" departPos="5.10" departSpeed="0.00" departDelay="0.06" arrival="227.00" arrivalLane="-88308811#1_0" arrivalPos="21.27" arrivalSpeed="12.05" duration="194.00" routeLength="2535.19" waitingTime="3.00" waitingCount="1" stopTime="0.00" timeLoss="39.71" rerouteNo="1" devices="tripinfo_veh33 routing_veh33" vType="veh_passenger" speedFactor="1.17" vaporized=""/>
    <tripinfo id="veh117" depart="117.00" departLane="97690869#1_0" departPos="5.10" departSpeed="0.00" departDelay="0.21" arrival="229.00" arrivalLane="965528711#2_0" arrivalPos="10.01" arrivalSpeed="22.34" duration="112.00" routeLength="1587.93" waitingTime="13.00" waitingCount="1" stopTime="0.00" timeLoss="40.72" rerouteNo="1" devices="tripinfo_veh117 routing_veh117" vType="veh_passenger" speedFactor="1.00" vaporized=""/>
    <tripinfo id="veh157" depart="157.00" departLane="-1267033587#0_0" departPos="5.10" departSpeed="0.00" departDelay="0.28" arrival="231.00" arrivalLane="-331352576_0" arrivalPos="47.88" arrivalSpeed="14.44" duration="74.00" routeLength="631.28" waitingTime="10.00" waitingCount="3" stopTime="0.00" timeLoss="38.04" rerouteNo="1" devices="tripinfo_veh157 routing_veh157" vType="veh_passenger" speedFactor="1.08" vaporized=""/>
    <tripinfo id="veh127" depart="127.00" departLane="-22882584#7_0" departPos="5.10" departSpeed="0.00" departDelay="0.23" arrival="235.00" arrivalLane="22943251#2_0" arrivalPos="26.38" arrivalSpeed="10.52" duration="108.00" routeLength="836.29" waitingTime="14.00" waitingCount="1" stopTime="0.00" timeLoss="31.42" rerouteNo="1" devices="tripinfo_veh127 routing_veh127" vType="veh_passenger" speedFactor="0.82" vaporized=""/>
    <tripinfo id="veh148" depart="148.00" departLane="696723066#0_0" departPos="5.10" departSpeed="0.00" departDelay="0.27" arrival="237.00" arrivalLane="927529341_0" arrivalPos="145.11" arrivalSpeed="13.18" duration="89.00" routeLength="951.24" waitingTime="13.00" waitingCount="2" stopTime="0.00" timeLoss="29.96" rerouteNo="1" devices="tripinfo_veh148 routing_veh148" vType="veh_passenger" speedFactor="0.97" vaporized=""/>
    <tripinfo id="veh15" depart="15.00" departLane="21992504#0_0" departPos="5.10" departSpeed="0.00" departDelay="0.03" arrival="239.00" arrivalLane="927489682_0" arrivalPos="102.31" arrivalSpeed="12.10" duration="224.00" routeLength="2406.61" waitingTime="13.00" waitingCount="1" stopTime="0.00" timeLoss="51.41" rerouteNo="1" devices="tripinfo_veh15 routing_veh15" vType="veh_passenger" speedFactor="0.93" vaporized=""/>
    <tripinfo id="veh132" depart="137.00" departLane="695727399#0_0" departPos="5.10" departSpeed="0.00" departDelay="5.24" arrival="241.00" arrivalLane="-21992504#7_0" arrivalPos="251.89" arrivalSpeed="20.40" duration="104.00" routeLength="1452.39" waitingTime="0.00" waitingCount="0" stopTime="0.00" timeLoss="18.38" rerouteNo="1" devices="tripinfo_veh132 routing_veh132" vType="veh_passenger" speedFactor="0.96" vaporized=""/>
    <tripinfo id="veh19" depart="19.00" departLane="-642093119_0" departPos="5.10" departSpeed="9.56" departDelay="0.03" arrival="243.00" arrivalLane="-699538610#3_0" arrivalPos="205.88" arrivalSpeed="14.79" duration="224.00" routeLength="3015.57" waitingTime="14.00" waitingCount="2" stopTime="0.00" timeLoss="59.73" rerouteNo="1" devices="tripinfo_veh19 routing_veh19" vType="veh_passenger" speedFactor="1.16" vaporized=""/>
    <tripinfo id="veh91" depart="91.00" departLane="97690902#0_0" departPos="5.10" departSpeed="0.00" departDelay="0.17" arrival="246.00" arrivalLane="696248312#3_0" arrivalPos="40.80" arrivalSpeed="9.73" duration="155.00" routeLength="1814.29" waitingTime="0.00" waitingCount="0" stopTime="0.00" timeLoss="23.40" rerouteNo="1" devices="tripinfo_veh91 routing_veh91" vType="veh_passenger" speedFactor="0.89" vaporized=""/>
    <tripinfo id="veh143" depart="143.00" departLane="740679365#2_1" departPos="5.10" departSpeed="0.00" departDelay="0.26" arrival="248.00" arrivalLane="-38434953#2_0" arrivalPos="82.63" arrivalSpeed="15.15" duration="105.00" routeLength="1389.74" waitingTime="5.00" waitingCount="1" stopTime="0.00" timeLoss="35.15" rerouteNo="1" devices="tripinfo_veh143 routing_veh143" vType="veh_passenger" speedFactor="1.13" vaporized=""/>
    <tripinfo id="veh47" depart="47.00" departLane="385508912#0_0" departPos="5.10" departSpeed="0.00" departDelay="0.09" arrival="249.00" arrivalLane="22758909#5_0" arrivalPos="195.90" arrivalSpeed="11.35" duration="202.00" routeLength="1705.66" waitingTime="0.00" waitingCount="0" stopTime="0.00" timeLoss="26.16" rerouteNo="1" devices="tripinfo_veh47 routing_veh47" vType="veh_passenger" speedFactor="0.90" vaporized=""/>
    <tripinfo id="veh139" depart="139.00" departLane="695657272#0_1" departPos="1.85" departSpeed="0.00" departDelay="0.25" arrival="251.00" arrivalLane="24238059#1_0" arrivalPos="10.40" arrivalSpeed="12.59" duration="112.00" routeLength="1365.96" waitingTime="8.00" waitingCount="2" stopTime="0.00" timeLoss="27.81" rerouteNo="1" devices="tripinfo_veh139 routing_veh139" vType="veh_passenger" speedFactor="0.95" vaporized=""/>
    <tripinfo id="veh136" depart="136.00" departLane="688941684#4_2" departPos="5.10" departSpeed="0.00" departDelay="0.25" arrival="253.00" arrivalLane="22943144#0_0" arrivalPos="61.45" arrivalSpeed="14.72" duration="117.00" routeLength="1277.38" waitingTime="3.00" waitingCount="1" stopTime="0.00" timeLoss="29.04" rerouteNo="1" devices="tripinfo_veh136 routing_veh136" vType="veh_passenger" speedFactor="1.12" vaporized=""/>
    <tripinfo id="veh50" depart="50.00" departLane="1419045825#1_2" departPos="5.10" departSpeed="0.00" departDelay="0.09" arrival="254.00" arrivalLane="90447871#1_0" arrivalPos="33.79" arrivalSpeed="11.14" duration="204.00" routeLength="2092.83" waitingTime="0.00" waitingCount="0" stopTime="0.00" timeLoss="33.55" rerouteNo="1" devices="tripinfo_veh50 routing_veh50" vType="veh_passenger" speedFactor="0.85" vaporized=""/>
    <tripinfo id="veh80" depart="80.00" departLane="192219555#1_1" departPos="5.10" departSpeed="0.00" departDelay="0.15" arrival="254.00" arrivalLane="691530623#0_0" arrivalPos="80.99" arrivalSpeed="10.22" duration="174.00" routeLength="2148.09" waitingTime="1.00" waitingCount="1" stopTime="0.00" timeLoss="37.46" rerouteNo="1" devices="tripinfo_veh80 routing_veh80" vType="veh_passenger" speedFactor="1.03" vaporized=""/>
    <tripinfo id="veh77" depart="77.00" departLane="696489863_0" departPos="5.10" departSpeed="0.00" departDelay="0.14" arrival="257.00" arrivalLane="-19822393#1_0" arrivalPos="39.31" arrivalSpeed="12.00" duration="180.00" routeLength="2248.19" waitingTime="0.00" waitingCount="0" stopTime="0.00" timeLoss="38.41" rerouteNo="1" devices="tripinfo_veh77 routing_veh77" vType="veh_passenger" speedFactor="0.98" vaporized=""/>
    <tripinfo id="veh74" depart="74.00" departLane="-642102307#4_0" departPos="5.10" departSpeed="13.27" departDelay="0.13" arrival="258.00" arrivalLane="-423032605_0" arrivalPos="74.68" arrivalSpeed="12.76" duration="184.00" routeLength="1840.84" waitingTime="3.00" waitingCount="1" stopTime="0.00" timeLoss="33.32" rerouteNo="1" devices="tripinfo_veh74 routing_veh74" vType="veh_passenger" speedFactor="0.96" vaporized=""/>
    <tripinfo id="veh42" depart="42.00" departLane="690320609_1" departPos="5.10" departSpeed="0.00" departDelay="0.08" arrival="260.00" arrivalLane="1290133352_0" arrivalPos="28.72" arrivalSpeed="11.76" duration="218.00" routeLength="3158.77" waitingTime="0.00" waitingCount="0" stopTime="0.00" timeLoss="51.50" rerouteNo="1" devices="tripinfo_veh42 routing_veh42" vType="veh_passenger" speedFactor="1.09" vaporized=""/>
    <tripinfo id="veh35" depart="35.00" departLane="79890305_0" departPos="5.10" departSpeed="0.00" departDelay="0.06" arrival="261.00" arrivalLane="14618089#2_0" arrivalPos="58.73" arrivalSpeed="10.52" duration="226.00" routeLength="2921.75" waitingTime="7.00" waitingCount="1" stopTime="0.00" timeLoss="54.80" rerouteNo="1" devices="tripinfo_veh35 routing_veh35" vType="veh_passenger" speedFactor="1.02" vaporized=""/>
    <tripinfo id="veh93" depart="93.00" departLane="696184906_1" departPos="5.10" departSpeed="0.00" departDelay="0.17" arrival="262.00" arrivalLane="-266301703_0" arrivalPos="47.92" arrivalSpeed="11.89" duration="169.00" routeLength="1853.66" waitingTime="19.00" waitingCount="2" stopTime="0.00" timeLoss="55.95" rerouteNo="1" devices="tripinfo_veh93 routing_veh93" vType="veh_passenger" speedFactor="0.92" vaporized=""/>
    <tripinfo id="veh84" depart="84.00" departLane="927688511_0" departPos="5.10" departSpeed="15.94" departDelay="0.15" arrival="266.00" arrivalLane="-22802797#2_0" arrivalPos="66.34" arrivalSpeed="14.67" duration="182.00" routeLength="2135.99" waitingTime="28.00" waitingCount="2" stopTime="0.00" timeLoss="67.22" rerouteNo="1" devices="tripinfo_veh84 routing_veh84" vType="veh_passenger" speedFactor="1.15" vaporized=""/>
    <tripinfo id="veh17" depart="17.00" departLane="696529202#0_3" departPos="5.10" departSpeed="0.00" departDelay="0.03" arrival="267.00" arrivalLane="24028276#3_0" arrivalPos="34.33" arrivalSpeed="12.20" duration="250.00" routeLength="3057.03" waitingTime="6.00" waitingCount="2" stopTime="0.00" timeLoss="54.67" rerouteNo="1" devices="tripinfo_veh17 routing_veh17" vType="veh_passenger" speedFactor="0.94" vaporized=""/>
    <tripinfo id="veh63" depart="63.00" departLane="-200132438#0_0" departPos="5.10" departSpeed="0.00" departDelay="0.11" arrival="272.00" arrivalLane="19820704#0_0" arrivalPos="84.06" arrivalSpeed="13.56" duration="209.00" routeLength="2655.80" waitingTime="1.00" waitingCount="1" stopTime="0.00" timeLoss="43.55" rerouteNo="1" devices="tripinfo_veh63 routing_veh63" vType="veh_passenger" speedFactor="0.99" vaporized=""/>
    <tripinfo id="veh5" depart="5.00" departLane="-635483486#6_1" departPos="5.10" departSpeed="0.00" departDelay="0.01" arrival="273.00" arrivalLane="19978070#3_0" arrivalPos="40.53" arrivalSpeed="10.45" duration="268.00" routeLength="3272.80" waitingTime="19.00" waitingCount="1" stopTime="0.00" timeLoss="66.40" rerouteNo="1" devices="tripinfo_veh5 routing_veh5" vType="veh_passenger" speedFactor="0.83" vaporized=""/>
    <tripinfo id="veh62" depart="62.00" departLane="697831506#0_1" departPos="5.10" departSpeed="0.00" departDelay="0.11" arrival="274.00" arrivalLane="90447860#1_0" arrivalPos="8.75" arrivalSpeed="13.23" duration="212.00" routeLength="2105.53" waitingTime="54.00" waitingCount="3" stopTime="0.00" timeLoss="108.55" rerouteNo="1" devices="tripinfo_veh62 routing_veh62" vType="veh_passenger" speedFactor="1.02" vaporized=""/>
    <tripinfo id="veh110" depart="110.00" departLane="1278964459_1" departPos="5.10" departSpeed="0.00" departDelay="0.20" arrival="278.00" arrivalLane="243118974#1_0" arrivalPos="58.31" arrivalSpeed="12.37" duration="168.00" routeLength="1621.35" waitingTime="25.00" waitingCount="2" stopTime="0.00" timeLoss="67.23" rerouteNo="1" devices="tripinfo_veh110 routing_veh110" vType="veh_passenger" speedFactor="0.93" vaporized=""/>
    <tripinfo id="veh25" depart="25.00" departLane="323014717_0" departPos="5.10" departSpeed="10.63" departDelay="0.05" arrival="279.00" arrivalLane="27575545#0_0" arrivalPos="69.01" arrivalSpeed="11.08" duration="254.00" routeLength="2771.72" waitingTime="22.00" waitingCount="2" stopTime="0.00" timeLoss="70.08" rerouteNo="1" devices="tripinfo_veh25 routing_veh25" vType="veh_passenger" speedFactor="0.87" vaporized=""/>
    <tripinfo id="veh88" depart="88.00" departLane="-689156360_0" departPos="5.10" departSpeed="12.90" departDelay="0.16" arrival="280.00" arrivalLane="90424405_0" arrivalPos="122.36" arrivalSpeed="13.91" duration="192.00" routeLength="2501.13" waitingTime="43.00" waitingCount="1" stopTime="0.00" timeLoss="76.00" rerouteNo="1" devices="tripinfo_veh88 routing_veh88" vType="veh_passenger" speedFactor="1.01" vaporized=""/>
    <tripinfo id="veh135" depart="135.00" departLane="278036591_0" departPos="5.10" departSpeed="14.05" departDelay="0.24" arrival="280.00" arrivalLane="-691529216#0_1" arrivalPos="56.58" arrivalSpeed="15.84" duration="145.00" routeLength="1682.23" waitingTime="26.00" waitingCount="2" stopTime="0.00" timeLoss="69.16" rerouteNo="1" devices="tripinfo_veh135 routing_veh135" vType="veh_passenger" speedFactor="1.01" vaporized=""/>
    <tripinfo id="veh52" depart="52.00" departLane="19870098#5_3" departPos="5.10" departSpeed="0.00" departDelay="0.09" arrival="281.00" arrivalLane="-287103785_0" arrivalPos="48.38" arrivalSpeed="14.03" duration="229.00" routeLength="2939.23" waitingTime="2.00" waitingCount="1" stopTime="0.00" timeLoss="44.20" rerouteNo="1" devices="tripinfo_veh52 routing_veh52" vType="veh_passenger" speedFactor="1.02" vaporized=""/>
    <tripinfo id="veh124" depart="124.00" departLane="693430261_0" departPos="5.10" departSpeed="0.00" departDelay="0.23" arrival="281.00" arrivalLane="-743764375#1_0" arrivalPos="68.91" arrivalSpeed="13.96" duration="157.00" routeLength="1721.13" waitingTime="0.00" waitingCount="0" stopTime="0.00" timeLoss="19.26" rerouteNo="1" devices="tripinfo_veh124 routing_veh124" vType="veh_passenger" speedFactor="1.06" vaporized=""/>
    <tripinfo id="veh82" depart="82.00" departLane="-22758905#2_0" departPos="5.10" departSpeed="0.00" departDelay="0.15" arrival="284.00" arrivalLane="130822232#2_0" arrivalPos="125.79" arrivalSpeed="13.85" duration="202.00" routeLength="2476.66" waitingTime="11.00" waitingCount="2" stopTime="0.00" timeLoss="52.65" rerouteNo="1" devices="tripinfo_veh82 routing_veh82" vType="veh_passenger" speedFactor="1.02" vaporized=""/>
    <tripinfo id="veh40" depart="40.00" departLane="97690869#0_0" departPos="5.10" departSpeed="22.90" departDelay="0.07" arrival="287.00" arrivalLane="199954902#1_0" arrivalPos="27.90" arrivalSpeed="14.00" duration="247.00" routeLength="3039.10" waitingTime="17.00" waitingCount="1" stopTime="0.00" timeLoss="69.73" rerouteNo="1" devices="tripinfo_veh40 routing_veh40" vType="veh_passenger" speedFactor="1.03" vaporized=""/>